 &FCI NORB=20,NELEC=30,MS2=0,
  ORBSYM=1,1,1,1,1,1,1,1,1,1,1,1,1,1,1,1,1,1,1,1,
  ISYM=1,
 &END
 0.4768278666158625    1    1    1    1
 -0.0004293881681234864    1    1    2    1
 0.09265418487918917    1    1    2    2
 -0.0004101132996204793    1    1    3    1
 0.0008435675166701914    1    1    3    2
 0.1078501975343963    1    1    3    3
 0.001455426531680647    1    1    4    1
 0.0002558859410090756    1    1    4    2
 0.0002874339868138882    1    1    4    3
 0.1751593281485564    1    1    4    4
 -0.00134249222361941    1    1    5    1
 -0.0003944484548758343    1    1    5    2
 -0.0007074328292035497    1    1    5    3
 -0.004699316960430041    1    1    5    4
 0.1784713107222108    1    1    5    5
 -0.004454386897125307    1    1    6    1
 -0.0003781605466073044    1    1    6    2
 -0.0004746434876622026    1    1    6    3
 -0.002833179299056752    1    1    6    4
 0.002902538046320344    1    1    6    5
 0.1760530212102523    1    1    6    6
 -0.001311435604160564    1    1    7    1
 -0.000646976290104442    1    1    7    2
 0.0001308205217432376    1    1    7    3
 -0.001623461086459335    1    1    7    4
 -0.001632050359832386    1    1    7    5
 -0.001462679333834544    1    1    7    6
 0.1505226935419003    1    1    7    7
 -0.001257190940447562    1    1    8    1
 -0.0007442905751506612    1    1    8    2
 0.0004779030968744563    1    1    8    3
 -0.001929602096000879    1    1    8    4
 -0.001221273564863939    1    1    8    5
 -0.002187137495371155    1    1    8    6
 0.002445777296948955    1    1    8    7
 0.1526280005850255    1    1    8    8
 -0.0008900532689253309    1    1    9    1
 0.0002632460961331307    1    1    9    2
 -0.0007685326374171917    1    1    9    3
 0.0007226753231872809    1    1    9    4
 0.001351572894278261    1    1    9    5
 0.007345113999073871    1    1    9    6
 -0.0008796320601666715    1    1    9    7
 -0.0005018621752167238    1    1    9    8
 0.1555499577235403    1    1    9    9
 -0.0004161001021331904    1    1   10    1
 -3.032501343119804e-05    1    1   10    2
 -0.0008534303769107093    1    1   10    3
 0.001209365630339589    1    1   10    4
 0.007406666761720252    1    1   10    5
 0.0009308042128492608    1    1   10    6
 -0.0004463859616440675    1    1   10    7
 -0.0007523250635268243    1    1   10    8
 0.001000438998487812    1    1   10    9
 0.1579424550667763    1    1   10   10
 0.0001628798040445297    1    1   11    1
 -0.0008636575590283966    1    1   11    2
 0.001199643219041047    1    1   11    3
 0.0003035872105040536    1    1   11    4
 -0.0004434690229817751    1    1   11    5
 -0.0004093564734628752    1    1   11    6
 0.000916821644881463    1    1   11    7
 0.0002255826336663029    1    1   11    8
 -0.001179073950936346    1    1   11    9
 -0.0008203943860330683    1    1   11   10
 0.1297588797253232    1    1   11   11
 -0.01558334212978703    1    1   12    1
 -0.0004536134812179546    1    1   12    2
 9.994602227726694e-05    1    1   12    3
 5.68794206850201e-05    1    1   12    4
 0.002635697128408263    1    1   12    5
 -0.003034034740873954    1    1   12    6
 0.000779714437782525    1    1   12    7
 0.001132189216888235    1    1   12    8
 0.0009158758621189987    1    1   12    9
 0.001333136635292817    1    1   12   10
 -0.0007926385802783458    1    1   12   11
 0.2796922826477953    1    1   12   12
 -0.0003210232808309692    1    1   13    1
 0.0006229894655325424    1    1   13    2
 -0.000848284846620389    1    1   13    3
 -0.0009018841876022024    1    1   13    4
 -0.0009728642563420939    1    1   13    5
 -0.0006479430381874857    1    1   13    6
 0.003604352976443461    1    1   13    7
 -0.002003847946491409    1    1   13    8
 0.0007157527752357018    1    1   13    9
 0.0007604615214972302    1    1   13   10
 -0.0004278600447189644    1    1   13   11
 -0.0006443752625488294    1    1   13   12
 0.1283164683308145    1    1   13   13
 0.0176872971879149    1    1   14    1
 -0.0001314325192854993    1    1   14    2
 -0.0002683610422067557    1    1   14    3
 0.001937322651285842    1    1   14    4
 0.008791909241312965    1    1   14    5
 -0.004075271289818476    1    1   14    6
 -0.001855745263226749    1    1   14    7
 -0.0008741126576660642    1    1   14    8
 -0.001039842561545389    1    1   14    9
 -0.0003430723919352512    1    1   14   10
 0.0003961535279771117    1    1   14   11
 -0.001075036547071032    1    1   14   12
 -0.001411790073256136    1    1   14   13
 0.2889862745201266    1    1   14   14
 -0.0006619879284423262    1    1   15    1
 -0.001056314842596191    1    1   15    2
 0.000380355197091378    1    1   15    3
 -0.0006564799211575791    1    1   15    4
 -0.001466871201663549    1    1   15    5
 -0.0003317709227995092    1    1   15    6
 0.003907389455966402    1    1   15    7
 -0.0009923260744839398    1    1   15    8
 -0.0007885095827917792    1    1   15    9
 -0.00111215369643904    1    1   15   10
 0.0006799616745998213    1    1   15   11
 0.0001090717038220809    1    1   15   12
 -1.673641129632965e-05    1    1   15   13
 0.0002102005939168621    1    1   15   14
 0.129701826578311    1    1   15   15
 -0.01369560387263416    1    1   16    1
 -5.185890191578315e-05    1    1   16    2
 -0.0005980291116541246    1    1   16    3
 0.0004663934373993645    1    1   16    4
 -0.0001011998364851257    1    1   16    5
 0.0005424277107590286    1    1   16    6
 0.0008669517421258668    1    1   16    7
 0.0006325599461404799    1    1   16    8
 0.001642313200324301    1    1   16    9
 0.001564180325117842    1    1   16   10
 -0.0004078262942691414    1    1   16   11
 0.004365020053994515    1    1   16   12
 0.000461843716311373    1    1   16   13
 -0.003834718757729079    1    1   16   14
 -0.0002768407966463856    1    1   16   15
 0.2772712787466755    1    1   16   16
 0.0004695686117436757    1    1   17    1
 -0.0007020251174597701    1    1   17    2
 0.0001339577319600103    1    1   17    3
 -0.0007064090787243494    1    1   17    4
 -0.001967813425948104    1    1   17    5
 -0.002193321656960081    1    1   17    6
 0.002183064393065751    1    1   17    7
 0.002326508289878877    1    1   17    8
 -0.0009359097883244364    1    1   17    9
 -0.0009718917998246213    1    1   17   10
 0.0004089351073141792    1    1   17   11
 0.0001489476084341256    1    1   17   12
 0.000367845425272875    1    1   17   13
 -0.0007965759068480266    1    1   17   14
 0.0006115516730025136    1    1   17   15
 0.001353366069000957    1    1   17   16
 0.1304460675031316    1    1   17   17
 -0.0008378739727308908    1    1   18    1
 -0.0003416034572784687    1    1   18    2
 -0.00048027777097798    1    1   18    3
 -0.006265563819981692    1    1   18    4
 0.0009850651729447727    1    1   18    5
 -0.008130396970850766    1    1   18    6
 0.00228933142751497    1    1   18    7
 0.002965691096945353    1    1   18    8
 -0.0002692163785865065    1    1   18    9
 -0.0005898571321027593    1    1   18   10
 0.0003386884088123103    1    1   18   11
 0.003561184373950199    1    1   18   12
 0.002148473252874502    1    1   18   13
 0.0009251038515289841    1    1   18   14
 -0.0002451232463124347    1    1   18   15
 -0.0004823424292465485    1    1   18   16
 0.001300984137237602    1    1   18   17
 0.2905891515527638    1    1   18   18
 0.01636236424900196    1    1   19    1
 0.0001436062574536833    1    1   19    2
 -0.0006926334612490167    1    1   19    3
 -0.001655191156046409    1    1   19    4
 -4.210215757496777e-05    1    1   19    5
 -0.001339135395478631    1    1   19    6
 -0.000613086385570494    1    1   19    7
 0.0008499926723286579    1    1   19    8
 -0.001590738736913422    1    1   19    9
 -0.001009942207503234    1    1   19   10
 -0.0004626494129901292    1    1   19   11
 -0.00504185379815453    1    1   19   12
 0.002470248643935253    1    1   19   13
 9.056920379770924e-06    1    1   19   14
 0.0004341822547906335    1    1   19   15
 -0.004444957710662759    1    1   19   16
 0.0003243329226216134    1    1   19   17
 0.002807653079721602    1    1   19   18
 0.2687766852780818    1    1   19   19
 -0.0005142410994863289    1    1   20    1
 -0.0007857717560192845    1    1   20    2
 -0.001331216908470069    1    1   20    3
 -0.0001048764998774772    1    1   20    4
 -0.001916605971146057    1    1   20    5
 -0.002147376837300134    1    1   20    6
 0.001361306880367244    1    1   20    7
 0.004902476054736059    1    1   20    8
 -0.0004142741955598459    1    1   20    9
 -0.0004261735942936029    1    1   20   10
 9.398193856165595e-05    1    1   20   11
 -0.000484024839018911    1    1   20   12
 -0.001473186942090363    1    1   20   13
 -0.0008363329735502488    1    1   20   14
 0.0002589805395601558    1    1   20   15
 0.0003237676812945249    1    1   20   16
 0.001590350873928639    1    1   20   17
 2.608755284812994e-05    1    1   20   18
 -0.0009785848924084427    1    1   20   19
 0.1247950053034099    1    1   20   20
 -0.000429388168123488    2    1    1    1
 1.28774120521901e-05    2    1    2    1
 -0.0004492889706113223    2    1    2    2
 1.899875112400448e-06    2    1    3    1
 2.582165061269404e-05    2    1    3    2
 0.0002780119373296173    2    1    3    3
 2.620735749009537e-05    2    1    4    1
 1.96065983470348e-06    2    1    4    2
 1.467853818125835e-06    2    1    4    3
 0.0002794117033760197    2    1    4    4
 -3.718960990113568e-05    2    1    5    1
 8.855737287945637e-06    2    1    5    2
 4.211753859161315e-06    2    1    5    3
 -1.429515529321243e-05    2    1    5    4
 -1.51160557009838e-05    2    1    5    5
 -2.170711669317807e-05    2    1    6    1
 8.964545704777418e-06    2    1    6    2
 4.384332804817525e-06    2    1    6    3
 -8.186001402139895e-06    2    1    6    4
 -5.776350400001084e-06    2    1    6    5
 -2.565672076305654e-05    2    1    6    6
 -9.044903956422499e-06    2    1    7    1
 3.844318200508436e-05    2    1    7    2
 1.375188962468925e-05    2    1    7    3
 -4.312193944576825e-06    2    1    7    4
 5.62075925104636e-07    2    1    7    5
 3.582648305192178e-05    2    1    7    6
 -8.710774655629346e-06    2    1    7    7
 -8.852617279024701e-06    2    1    8    1
 2.113174927353439e-05    2    1    8    2
 7.797137185479033e-06    2    1    8    3
 -4.557511335553515e-06    2    1    8    4
 3.439404220794117e-05    2    1    8    5
 2.307317084562668e-06    2    1    8    6
 -5.707099026566448e-06    2    1    8    7
 -3.22250313517628e-05    2    1    8    8
 -8.081563219756812e-06    2    1    9    1
 1.133461554718491e-05    2    1    9    2
 -6.711189505119049e-07    2    1    9    3
 -1.010837907086914e-06    2    1    9    4
 -1.864882733034564e-06    2    1    9    5
 -1.277633011793242e-05    2    1    9    6
 -1.317449965114014e-05    2    1    9    7
 -1.613894952881343e-06    2    1    9    8
 -8.187859553402967e-05    2    1    9    9
 -1.07289439866076e-05    2    1   10    1
 7.979632345549933e-06    2    1   10    2
 9.949080468150432e-07    2    1   10    3
 9.067799958623927e-07    2    1   10    4
 -1.444133038911671e-05    2    1   10    5
 -1.637787076393184e-06    2    1   10    6
 -1.781884096438266e-06    2    1   10    7
 -1.30274458861365e-05    2    1   10    8
 3.553268557404291e-07    2    1   10    9
 -8.790262946244345e-05    2    1   10   10
 -4.511315440050409e-06    2    1   11    1
 -1.27196006670129e-05    2    1   11    2
 -1.844559114357131e-05    2    1   11    3
 2.84032557905916e-06    2    1   11    4
 -5.603706122851523e-06    2    1   11    5
 -2.983028361099298e-06    2    1   11    6
 -7.33564698219204e-07    2    1   11    7
 1.701403554097826e-05    2    1   11    8
 7.52131735864724e-06    2    1   11    9
 1.020437773667557e-05    2    1   11   10
 0.0002372209924616018    2    1   11   11
 1.093085983511399e-05    2    1   12    1
 4.495037698161895e-06    2    1   12    2
 -2.825625997669044e-06    2    1   12    3
 1.837259402319805e-05    2    1   12    4
 -1.169793719137379e-06    2    1   12    5
 1.728063456747516e-05    2    1   12    6
 -5.752792118788847e-06    2    1   12    7
 -2.770015449493742e-06    2    1   12    8
 1.013467783916617e-05    2    1   12    9
 7.221640216712182e-06    2    1   12   10
 -6.033004105103232e-06    2    1   12   11
 0.000244087254513393    2    1   12   12
 8.154403714517998e-06    2    1   13    1
 1.390369347105153e-05    2    1   13    2
 3.645634970042147e-06    2    1   13    3
 -6.942392068415476e-07    2    1   13    4
 1.212521201068956e-06    2    1   13    5
 8.129756225972799e-06    2    1   13    6
 -2.436484284706152e-05    2    1   13    7
 1.235573185282728e-05    2    1   13    8
 -4.881946338872468e-06    2    1   13    9
 -2.715892990946284e-06    2    1   13   10
 5.446700001456237e-06    2    1   13   11
 3.856707317865439e-06    2    1   13   12
 0.0002473723145588209    2    1   13   13
 -3.424902986267791e-05    2    1   14    1
 -1.798072530754933e-06    2    1   14    2
 4.350910613981411e-07    2    1   14    3
 -8.495989863143237e-06    2    1   14    4
 3.523468404076786e-06    2    1   14    5
 -1.309195398692183e-05    2    1   14    6
 -1.696492634697185e-06    2    1   14    7
 4.015171807163607e-07    2    1   14    8
 -7.969161208451315e-06    2    1   14    9
 -7.311135609931476e-06    2    1   14   10
 5.662910216862918e-06    2    1   14   11
 4.556941565545651e-06    2    1   14   12
 -3.899465133242187e-06    2    1   14   13
 0.0002609110195365932    2    1   14   14
 -1.890250564058419e-06    2    1   15    1
 -3.854126427348783e-05    2    1   15    2
 -8.211785929152084e-06    2    1   15    3
 2.752198563025857e-07    2    1   15    4
 1.554334710458129e-06    2    1   15    5
 -4.48368214285101e-07    2    1   15    6
 -3.881603596618258e-06    2    1   15    7
 1.217914400217611e-05    2    1   15    8
 6.624592795500708e-06    2    1   15    9
 7.369412375086517e-06    2    1   15   10
 -5.789336798468344e-06    2    1   15   11
 -5.352932372541302e-06    2    1   15   12
 2.263752613392506e-05    2    1   15   13
 5.834592558780142e-06    2    1   15   14
 0.000254167435021206    2    1   15   15
 4.347569577827793e-05    2    1   16    1
 1.217943379307974e-05    2    1   16    2
 2.43531355668313e-06    2    1   16    3
 -1.36048005630803e-06    2    1   16    4
 -2.448190503344064e-05    2    1   16    5
 -2.006640188482983e-05    2    1   16    6
 3.015257922441746e-06    2    1   16    7
 1.97186252727717e-06    2    1   16    8
 -3.240611511342263e-06    2    1   16    9
 -5.026208730683113e-06    2    1   16   10
 -1.765414846712311e-06    2    1   16   11
 8.745584998316882e-06    2    1   16   12
 4.890710097912955e-06    2    1   16   13
 -1.042632975855632e-05    2    1   16   14
 3.17150815027584e-06    2    1   16   15
 0.0002626964985522339    2    1   16   16
 -1.153425466352067e-05    2    1   17    1
 -4.34266695493972e-05    2    1   17    2
 1.631673253319894e-06    2    1   17    3
 -2.600296243035714e-06    2    1   17    4
 2.98058262441199e-06    2    1   17    5
 1.933217690562352e-06    2    1   17    6
 -2.561848111198328e-05    2    1   17    7
 -1.954156591912815e-05    2    1   17    8
 -5.46247938288914e-06    2    1   17    9
 -3.43323445822455e-06    2    1   17   10
 8.56765423440938e-06    2    1   17   11
 -1.679503936035012e-06    2    1   17   12
 7.550306209404044e-07    2    1   17   13
 -3.330592963668844e-06    2    1   17   14
 1.049110018077502e-05    2    1   17   15
 1.641649820373944e-05    2    1   17   16
 0.0002562108546713312    2    1   17   17
 -7.436031835418539e-07    2    1   18    1
 6.243416433694829e-06    2    1   18    2
 5.227602423299162e-07    2    1   18    3
 1.027017402005089e-05    2    1   18    4
 1.622420761894344e-05    2    1   18    5
 -7.000375579500433e-07    2    1   18    6
 5.907367740759577e-06    2    1   18    7
 -2.872256877749465e-06    2    1   18    8
 5.321635932802877e-06    2    1   18    9
 6.044101502108853e-06    2    1   18   10
 -6.035075612409613e-06    2    1   18   11
 -3.307736418884925e-06    2    1   18   12
 -2.768317246208934e-06    2    1   18   13
 2.703247082780106e-05    2    1   18   14
 2.593534474973605e-07    2    1   18   15
 1.625078896780443e-05    2    1   18   16
 7.69446127535111e-06    2    1   18   17
 0.0002008150655232929    2    1   18   18
 -1.344496047521251e-05    2    1   19    1
 -5.87486750213339e-06    2    1   19    2
 9.045158464254935e-07    2    1   19    3
 -8.513171682044719e-07    2    1   19    4
 -2.181602551264541e-05    2    1   19    5
 1.145655005823424e-05    2    1   19    6
 3.849464801237666e-06    2    1   19    7
 8.22024338508311e-06    2    1   19    8
 -1.306454155332826e-06    2    1   19    9
 -3.405617788717649e-06    2    1   19   10
 2.062324708366232e-06    2    1   19   11
 4.291660880076924e-06    2    1   19   12
 -3.832515188573316e-07    2    1   19   13
 -1.519793129896677e-05    2    1   19   14
 4.3292225410856e-06    2    1   19   15
 6.28667815100206e-06    2    1   19   16
 8.531580802841041e-06    2    1   19   17
 -2.931442181307715e-05    2    1   19   18
 0.0002389555400112388    2    1   19   19
 -3.974606821142222e-06    2    1   20    1
 4.638191364116665e-06    2    1   20    2
 -1.005142084779289e-05    2    1   20    3
 -8.25395450177485e-07    2    1   20    4
 6.78892649656423e-06    2    1   20    5
 -1.537497305855542e-07    2    1   20    6
 7.766212768061001e-06    2    1   20    7
 3.390245163490404e-06    2    1   20    8
 4.584972157411017e-06    2    1   20    9
 4.450316712413983e-06    2    1   20   10
 -2.589085020089678e-06    2    1   20   11
 -5.204728000349175e-06    2    1   20   12
 -1.183458619113288e-05    2    1   20   13
 -1.840912055962504e-06    2    1   20   14
 -1.895207389917845e-05    2    1   20   15
 1.063216067116173e-05    2    1   20   16
 1.748747174307364e-05    2    1   20   17
 1.552632793567245e-05    2    1   20   18
 3.055792159592747e-06    2    1   20   19
 0.0001777456749247385    2    1   20   20
 0.09265418487918914    2    2    1    1
 -0.0004492889706113213    2    2    2    1
 0.4771298560949742    2    2    2    2
 0.000260422894394142    2    2    3    1
 0.001461502011670889    2    2    3    2
 0.1753675227602015    2    2    3    3
 0.0008374358525387635    2    2    4    1
 -0.0003708904126660251    2    2    4    2
 0.0002782190081110795    2    2    4    3
 0.1079220196744713    2    2    4    4
 0.0006383585280033434    2    2    5    1
 0.001282942340371059    2    2    5    2
 0.001623708340569549    2    2    5    3
 -0.0001079513614232733    2    2    5    4
 0.1502777058159219    2    2    5    5
 0.0007509812009396659    2    2    6    1
 0.001263916990403914    2    2    6    2
 0.001958770707907946    2    2    6    3
 -0.0004563619783495202    2    2    6    4
 0.002444728935605472    2    2    6    5
 0.1527114719626361    2    2    6    6
 0.0004349991097258109    2    2    7    1
 0.001320791060338942    2    2    7    2
 0.004687375438590498    2    2    7    3
 0.0006943672145320645    2    2    7    4
 -0.001601526085004018    2    2    7    5
 -0.001188017020619578    2    2    7    6
 0.1785431343521233    2    2    7    7
 0.0003849533953795486    2    2    8    1
 0.004472559261415491    2    2    8    2
 0.002843569110034316    2    2    8    3
 0.000488698725122534    2    2    8    4
 -0.001459187910651521    2    2    8    5
 -0.002204241831301282    2    2    8    6
 0.002903564160099743    2    2    8    7
 0.1758680998373377    2    2    8    8
 6.024295379269146e-05    2    2    9    1
 0.0004365737487729058    2    2    9    2
 -0.001224360899822916    2    2    9    3
 0.0008437596920558688    2    2    9    4
 -0.0004377468283984597    2    2    9    5
 -0.0007439567381172206    2    2    9    6
 0.00742075421994759    2    2    9    7
 0.0009348591895412087    2    2    9    8
 0.1580601944007481    2    2    9    9
 -0.0002645157902146367    2    2   10    1
 0.0008233486670755305    2    2   10    2
 -0.000706723338484899    2    2   10    3
 0.000717255438220281    2    2   10    4
 -0.0008740068134880546    2    2   10    5
 -0.0005197432375714021    2    2   10    6
 0.001336593021256214    2    2   10    7
 0.007221692664859264    2    2   10    8
 0.001010571053626506    2    2   10    9
 0.1552390006343785    2    2   10   10
 0.0004678623274278498    2    2   11    1
 0.01617308692040387    2    2   11    2
 8.962358650871621e-05    2    2   11    3
 -0.0001296965466486664    2    2   11    4
 0.0008485994119805837    2    2   11    5
 0.001185990977713495    2    2   11    6
 0.002554493116025488    2    2   11    7
 -0.003033897694966251    2    2   11    8
 0.001373915793715175    2    2   11    9
 0.0009604375120378237    2    2   11   10
 0.2806120269935241    2    2   11   11
 0.0008288950539151534    2    2   12    1
 -0.0002070493015922798    2    2   12    2
 -0.0003032954880648918    2    2   12    3
 -0.001190629160251462    2    2   12    4
 0.0009100425211978814    2    2   12    5
 9.742335340989287e-05    2    2   12    6
 -0.0004034760892967584    2    2   12    7
 -0.0003672057750288769    2    2   12    8
 -0.0007797697292026274    2    2   12    9
 -0.001137382896930733    2    2   12   10
 -0.0008106770756868288    2    2   12   11
 0.1296487316233406    2    2   12   12
 -0.0002342591307054606    2    2   13    1
 -0.0158983369434764    2    2   13    2
 -0.0004702176091819743    2    2   13    3
 0.0005139499438719439    2    2   13    4
 -0.001317625287850745    2    2   13    5
 -0.0001496791813990992    2    2   13    6
 -0.00036422634083263    2    2   13    7
 0.001369732250335708    2    2   13    8
 -0.0008288595831043153    2    2   13    9
 -0.001457093143748438    2    2   13   10
 -0.005905914475270605    2    2   13   11
 -0.0005035773353123071    2    2   13   12
 0.269948681530636    2    2   13   13
 -0.001067627242611635    2    2   14    1
 -0.0006638697097168725    2    2   14    2
 -0.0006147501409373789    2    2   14    3
 0.0003835859341365166    2    2   14    4
 -0.003840886952072308    2    2   14    5
 0.0009379552690475099    2    2   14    6
 0.001498688039422009    2    2   14    7
 0.0003528877933097614    2    2   14    8
 0.001150491299831673    2    2   14    9
 0.0008157206187328906    2    2   14   10
 -6.531499145230184e-05    2    2   14   11
 -0.0006751313509803908    2    2   14   12
 -0.0004502753613068412    2    2   14   13
 0.1296403717195488    2    2   14   14
 -0.0001298257312394366    2    2   15    1
 0.01785659980631599    2    2   15    2
 0.001915326350583321    2    2   15    3
 -0.0002464141666928259    2    2   15    4
 0.001776853765472096    2    2   15    5
 0.000815462342189043    2    2   15    6
 -0.008819037885430698    2    2   15    7
 0.004235089809661828    2    2   15    8
 0.0003327685938901851    2    2   15    9
 0.001004735156434857    2    2   15   10
 0.001216752705909808    2    2   15   11
 -0.0003929556351325951    2    2   15   12
 0.0001888686290269312    2    2   15   13
 0.0002290197798336427    2    2   15   14
 0.2896322030467043    2    2   15   15
 0.00074882179472086    2    2   16    1
 -0.0005217950729588145    2    2   16    2
 0.0006560204442926824    2    2   16    3
 -0.00016164193883446    2    2   16    4
 0.002162213183959835    2    2   16    5
 0.002399998851065858    2    2   16    6
 -0.001981105744194243    2    2   16    7
 -0.002170547694554474    2    2   16    8
 -0.001026546896450712    2    2   16    9
 -0.0009700185771947847    2    2   16   10
 0.0001829826325143584    2    2   16   11
 0.000405577589622322    2    2   16   12
 -0.0002239406708677836    2    2   16   13
 -0.0006394520716535034    2    2   16   14
 0.0007394624397525154    2    2   16   15
 0.1304133704822951    2    2   16   16
 3.812246249988522e-05    2    2   17    1
 0.01299862495181613    2    2   17    2
 -0.0004646789651241483    2    2   17    3
 0.0006310749683155147    2    2   17    4
 0.000807023122952472    2    2   17    5
 0.0005936824569930944    2    2   17    6
 -1.802197244664839e-05    2    2   17    7
 0.0005828618805411447    2    2   17    8
 0.001552773122598433    2    2   17    9
 0.001534684917181827    2    2   17   10
 0.004298929576528915    2    2   17   11
 -0.0004222087596328708    2    2   17   12
 -0.003978432447516647    2    2   17   13
 0.0003109223018630747    2    2   17   14
 0.003657143500605914    2    2   17   15
 0.001303257257939111    2    2   17   16
 0.2774187677553459    2    2   17   17
 0.0009438126463706221    2    2   18    1
 0.0003513389555935365    2    2   18    2
 -0.0002144362931370068    2    2   18    3
 0.0009474340227625239    2    2   18    4
 6.013365329185127e-06    2    2   18    5
 0.005304459218282154    2    2   18    6
 -0.001410877854704916    2    2   18    7
 -0.001780316941114396    2    2   18    8
 -0.0006261220901874904    2    2   18    9
 -0.0006115568229059833    2    2   18   10
 -0.0002713054584635782    2    2   18   11
 0.0002328905792999054    2    2   18   12
 -0.001457302162814127    2    2   18   13
 -0.0002042483836423483    2    2   18   14
 0.0002993646365596484    2    2   18   15
 0.001386365827875583    2    2   18   16
 0.000114277337257648    2    2   18   17
 0.1260303841026951    2    2   18   18
 -0.0003019643195141711    2    2   19    1
 0.0004416664600054035    2    2   19    2
 0.0008845466702401788    2    2   19    3
 0.001189947041283935    2    2   19    4
 0.003861961375443602    2    2   19    5
 -0.0002498834935104482    2    2   19    6
 -0.001643049527291267    2    2   19    7
 -0.001400239077584751    2    2   19    8
 0.0005414258092401972    2    2   19    9
 0.0005017037738998701    2    2   19   10
 -0.0006980834024402702    2    2   19   11
 -0.0003981580013707312    2    2   19   12
 0.001049564175612957    2    2   19   13
 -5.351339952586467e-05    2    2   19   14
 0.001627959451537308    2    2   19   15
 0.0008663271255149256    2    2   19   16
 0.0006229033401237676    2    2   19   17
 -0.002151378488721465    2    2   19   18
 0.1269614713853683    2    2   19   19
 0.000272067039522682    2    2   20    1
 -0.004280398793302721    2    2   20    2
 0.006449233115411248    2    2   20    3
 0.000655871240515588    2    2   20    4
 0.002018435363379127    2    2   20    5
 0.003075572349295193    2    2   20    6
 0.0007131257546515305    2    2   20    7
 -0.007971336846999182    2    2   20    8
 -0.0009320477206187562    2    2   20    9
 -0.0007224136037024255    2    2   20   10
 0.001961677781677728    2    2   20   11
 0.0001466461853010427    2    2   20   12
 -0.004243700565240083    2    2   20   13
 0.0001660228806695968    2    2   20   14
 -0.0008733448873614589    2    2   20   15
 0.00120300432923027    2    2   20   16
 -0.001977366156226235    2    2   20   17
 -0.001117905493369012    2    2   20   18
 0.002553905646081686    2    2   20   19
 0.2906181050538168    2    2   20   20
 -0.0004101132996204776    3    1    1    1
 1.899875112400472e-06    3    1    2    1
 0.0002604228943941445    3    1    2    2
 7.480337752215145e-06    3    1    3    1
 3.758439549176398e-05    3    1    3    2
 -0.0002046558461938426    3    1    3    3
 3.890203409377152e-05    3    1    4    1
 1.730920266367664e-06    3    1    4    2
 1.884702108501853e-06    3    1    4    3
 0.0002173855145092937    3    1    4    4
 -4.127707920264432e-05    3    1    5    1
 5.092311584726358e-06    3    1    5    2
 9.066615773957795e-06    3    1    5    3
 -1.169886495634689e-05    3    1    5    4
 0.0003717872648375928    3    1    5    5
 -2.932063353370481e-05    3    1    6    1
 4.782999626590348e-06    3    1    6    2
 9.608706624591617e-06    3    1    6    3
 -1.136794110618037e-05    3    1    6    4
 2.507672082044319e-05    3    1    6    5
 0.0003135577757468096    3    1    6    6
 -1.027034921255971e-05    3    1    7    1
 1.334645333010011e-05    3    1    7    2
 2.739404672054167e-05    3    1    7    3
 -2.884424310107551e-06    3    1    7    4
 -1.767336575188927e-05    3    1    7    5
 -6.905002911206509e-05    3    1    7    6
 0.0003170373899327954    3    1    7    7
 -9.557509194415546e-06    3    1    8    1
 1.476479237754737e-05    3    1    8    2
 3.707394163483595e-05    3    1    8    3
 -2.952926159889669e-06    3    1    8    4
 -5.456506804896008e-05    3    1    8    5
 -1.735990566019156e-05    3    1    8    6
 2.404718729672674e-05    3    1    8    7
 0.0003786565873473176    3    1    8    8
 -2.356060371954011e-05    3    1    9    1
 8.344199599378629e-06    3    1    9    2
 -2.069992210753913e-05    3    1    9    3
 8.102788754492758e-06    3    1    9    4
 1.239223284892214e-06    3    1    9    5
 1.250365383169199e-05    3    1    9    6
 -1.483505326740104e-05    3    1    9    7
 -1.149721925567632e-06    3    1    9    8
 0.0002829699429036786    3    1    9    9
 -2.142110880671529e-05    3    1   10    1
 8.639908498724233e-06    3    1   10    2
 -1.806429498210402e-05    3    1   10    3
 8.225155061114993e-06    3    1   10    4
 7.733154241967652e-06    3    1   10    5
 5.518826549047301e-07    3    1   10    6
 -2.416077083062174e-07    3    1   10    7
 -5.760346204790369e-06    3    1   10    8
 7.715436125347416e-06    3    1   10    9
 0.0003281797198790987    3    1   10   10
 6.59215029969401e-06    3    1   11    1
 3.375717205004588e-06    3    1   11    2
 1.5650515089318e-05    3    1   11    3
 -8.971555350612394e-07    3    1   11    4
 1.97096361618174e-06    3    1   11    5
 -5.839763848995897e-07    3    1   11    6
 4.583418442251765e-06    3    1   11    7
 -5.508360281803679e-06    3    1   11    8
 -5.186583444159898e-06    3    1   11    9
 -1.019121607603245e-05    3    1   11   10
 0.0005025332518218345    3    1   11   11